           7
Energy =  -2.8144000E+01
O        0.0000     0.0000     0.0000
H       -0.0000    -0.7668    -0.5971
H       -0.0000     0.7668    -0.5971
X       -0.0000    -0.0000    -0.0668
O       -1.4720     0.0000     2.3818
H       -0.9611     0.0000     1.5551
H       -0.8440    -0.3223     3.0498
