           7
Energy =   0.0000000E+00
O        0.0000     0.0000     0.0000
H       -0.0000    -0.7668    -0.5971
H       -0.0000     0.7668    -0.5971
X       -0.0000    -0.0000    -0.0668
O       -1.9416    -0.7416     1.2000
H       -2.7279    -1.0420     1.6859
H       -1.8701    -1.3627     0.4559
