           7
Energy =   0.0000000E+00
O        0.0000     0.0000     0.0000
H       -0.0000    -0.7668    -0.5971
H       -0.0000     0.7668    -0.5971
X       -0.0000    -0.0000    -0.0668
O        0.0000     2.4000     0.0000
H       -0.4859     3.1863     0.3003
H        0.8199     2.7576    -0.3801
