           7
Energy =   0.0000000E+00
O        0.0000     0.0000     0.0000
H       -0.0000    -0.7668    -0.5971
H       -0.0000     0.7668    -0.5971
X       -0.0000    -0.0000    -0.0668
O        1.2618     0.0000     2.0416
H        1.7727    -0.0000     2.8683
H        0.9974     0.9279     1.9251
