          22
Energy = -4.27702E+001
C      0.3669     0.6357     0.0027
C      1.7643     0.6357     0.0027
C      2.4591     1.8426     0.0027
C      1.7629     3.0504     0.0070
C      0.3689     3.0511     0.0089
C     -0.3304     1.8468     0.0044
H      2.3058    -0.3085    -0.0039
H      3.5472     1.8417    -0.0009
H      2.3073     3.9919     0.0088
H     -0.1748     3.9937     0.0140
H     -1.4189     1.8450     0.0090
C     -0.3678    -0.6352    -0.0007
C     -0.1487    -1.5726     1.0122
C     -0.8478    -2.7770     1.0074
C     -1.7621    -3.0508    -0.0086
C     -1.9794    -2.1172    -1.0207
C     -1.2860    -0.9095    -1.0177
H      0.5635    -1.3554     1.8062
H     -0.6792    -3.5048     1.7986
H     -2.3059    -3.9927    -0.0116
H     -2.6916    -2.3315    -1.8150
H     -1.4517    -0.1804    -1.8089
