           7
Energy =  -1.0394400E+01
O        0.0000     0.0000     0.0000
H       -0.0000    -0.7668    -0.5971
H       -0.0000     0.7668    -0.5971
X       -0.0000    -0.0000    -0.0668
O        2.1029     0.0000     3.4026
H        1.3167     0.3003     3.8885
H        1.8037    -0.0609     2.4800
